9
Lattice="0.0 5.2041249688531 5.2041249688531 5.2041249688531 0.0 5.2041249688531 5.2041249688531 5.2041249688531 0.0" Properties=species:S:1:pos:R:3:forces:R:3 type=mat mad_index=35510 source=MAD energy=-31.740333557128906 stress="-1.7928710803971626e-05 -5.989198143652175e-06 -1.1171531696163584e-05 -5.989198143652175e-06 -5.60486878384836e-05 -4.025420821562875e-06 -1.1171531696163584e-05 -4.025420821562875e-06 -1.8503162209526636e-05" pbc="T T T"
Cs       2.60206248       2.60206248       7.80618745       0.02808771      -0.00840147      -0.00858131
Cs       2.60206248       7.80618745       7.80618745       0.04214007      -0.00559658      -0.01979074
Pb       0.00000000       0.00000000       0.00000000      -0.11585059       0.03921013      -0.02915609
Cl       7.86262757       0.00000000       0.00000000      -0.08322130      -0.01460079       0.00683983
Cl       5.20412497       2.65850260       0.00000000       0.01001848      -0.12389269       0.00884962
Cl       0.00000000       0.00000000       7.86262757      -0.00635192       0.00259321      -0.09498538
Cl       5.20412497       0.00000000       7.74974733       0.00771014       0.00639222       0.11703568
Cl       5.20412497       7.74974733       0.00000000      -0.01656766       0.10464661       0.00579004
Cl       2.54562237       0.00000000       0.00000000       0.13403508      -0.00035063       0.01399836
4
Lattice="1.8408994024075 -4.9720805213643 0.0 1.8408994024075 4.9720805213643 0.0 0.0 0.0 3.9815093622668" Properties=species:S:1:pos:R:3:forces:R:3 type=mat mad_index=45961 source=MAD energy=-19.07746124267578 stress="-0.00045364745892584324 -6.549639510922134e-05 -0.00019114560564048588 -6.549639510922134e-05 -0.001432148739695549 -6.0805734392488375e-05 -0.00019114560564048588 -6.0805734392488375e-05 -0.0006918709259480238" pbc="T T T"
Ni       1.49432416       8.63659958       2.98629649       0.87606764       3.39050531       0.46184480
Ni       0.27102197       5.60628035       1.18985670      -1.80233240      -1.01278114      -0.53161216
Bi       1.48441767       6.33193081       3.13188612       1.67972457      -2.91693330       0.42267731
Bi      -0.11098398       8.33052148       1.08696617      -0.75345969       0.53920889      -0.35291001
9
Lattice="3.8374403285268 2.7998855143619 -0.37673649695331 -3.8374403285268 2.7998855143619 0.37673649695331 -1.2892878410646 0.0 4.2916602019414" Properties=species:S:1:pos:R:3:forces:R:3 type=mat mad_index=37745 source=MAD energy=-56.549781799316406 stress="-2.6825606255442835e-05 -8.416051423409954e-05 -6.168521213112399e-05 -8.416051423409954e-05 0.00013028003741055727 2.9002558221691288e-05 -6.168521213112399e-05 2.9002558221691288e-05 1.5291714589693584e-05" pbc="T T T"
Li       5.07077330       0.00000000       2.58747258       0.28893149       0.05037315      -0.11317784
Li       4.61557817       4.16435426      -0.21806416      -0.03155127      -0.02862152       0.03432544
Li       4.61557817       1.43541677      -0.21806416      -0.03809156       0.13192092       0.08267193
Li       1.97934927       0.00000000       2.04746866       0.02078793       0.00315127      -0.07248072
C       -0.91847755       0.00000000       1.87971272       0.20108202      -0.10416734       0.22202379
O        2.74351336       3.94591501       2.31282453      -0.19665724      -0.40307862      -0.07621398
O        2.74351336       1.65385602       2.31282453      -0.17349827       0.38153249      -0.03049550
O        0.32193833       0.00000000       1.29304104      -0.13248271      -0.00008304      -0.17205450
O        5.74781444       0.00000000       0.11184309       0.06147961      -0.03102731       0.12540129
12
Lattice="2.7245145790327 1.5729992255799 8.3941448179575 -2.7245145790327 1.5729992255799 8.3941448179575 7.4933082887965e-19 -3.1459984511598 8.3941448179575" Properties=species:S:1:pos:R:3:forces:R:3 type=mat mad_index=66070 source=MAD energy=-54.16640853881836 stress="-0.0006874028476886451 6.907353235874325e-05 -7.914701564004645e-05 6.907353235874325e-05 -0.00010561013914411888 5.149190837983042e-05 -7.914701564004645e-05 5.149190837983042e-05 -0.00024932678206823766" pbc="T T T"
Y       -0.12569787      -0.00359074      21.05401023       0.08967663      -0.85425496       3.68280959
Y       -0.20879704       3.22478133      20.10616050       1.41561246      -1.23924220       1.06540024
Y       -0.00389472       0.25363596      -0.12612479       0.22401343      -0.33366576      -0.27693132
Al      -0.07428669       4.41351611      23.02755549      -0.52190554       1.45144939       0.06663108
Al       1.55577642       2.55401400      23.02373845      -6.14444160      -0.65626258      -0.22920980
Al       1.19847425       0.91824960      18.91250383       1.03248167       0.00186969      -3.34494877
Al       4.20442831       0.70300618      18.59535295      -1.26190746       0.24376971      -0.48439506
Al       2.91870799       3.08805087      18.59439785      -1.22821546       0.79326785       0.23234102
Al      -1.86995589       2.40339852      23.36241170       7.67997217       0.56817645      -1.43502855
Al       2.68853207       1.26841961      20.76545291       0.44592598       1.73183751       1.14268458
Cu       2.84479900       1.51566487      25.14757889      -1.04140913      -0.98349655       0.76770729
Cu       2.91586540       1.70080174      16.84369705      -0.68980306      -0.72344863      -1.18706036
26
Lattice="7.5152892703511 2.9720674150093 -0.046316551497553 -7.5152892703511 2.9720674150093 0.046316551497553 -2.2529502374525 0.0 9.7836051155365" Properties=species:S:1:pos:R:3:forces:R:3 type=mat mad_index=59867 source=MAD energy=-116.81861877441406 stress="-0.0003235633485019207 -2.6461418656253954e-06 -0.0003049414372071624 -2.6461418656253954e-06 -0.0002685773652046919 0.00020935085194651037 -0.0003049414372071624 0.00020935085194651037 -0.0017088201129809022" pbc="T T T"
Rb       1.07162236       1.60459668       6.10429763       0.59557170      -1.71816814       0.99655396
Rb       2.70460607       4.41847668       1.94721919       0.28938106       0.61342251      -1.58387506
Rb       2.57770767       4.60794542       8.31456126       0.19493203       0.21444598       0.59132069
Rb       4.81471706       1.88422195       3.58175667      -5.51106644       0.44382596      -2.28953028
Rb      -1.58080671       3.60100314       7.09630513       0.09577756       2.28323078       1.96784496
Rb      -0.57446409       2.27619069       2.77712290      -0.25930437      -2.36945367      -2.08558536
O        3.27758613       1.59966181       8.92375740     -32.73388672      -3.51395082     -95.69190979
O        4.44665976       4.28752896       3.80421373      -1.30890226       4.08466148      -0.94398373
O        0.80944075       4.09880678       5.73391357      -5.51407385     -14.70539474      91.11171722
O        2.00976441       1.56913495       1.29588062       1.00924814       0.67508250      -0.19358528
O        0.73840281       2.93245036       8.82424935      -3.92909694      -2.45355844       2.22575641
O        1.65357516       3.00438459       3.89988044      -1.75962269       4.51797962       2.52422714
O        3.61379657       5.60974185       5.86602515       1.24571645      -0.79948008      -0.62270433
O        4.86690568       0.24867543       0.74681467       0.44747004       1.19807744      -0.02378222
O       -1.72096467       1.65400502       9.30642693     -10.44297218       3.96555543      -1.56541359
O       -0.92675149       4.09773713       4.22874794       8.63021183       0.44048497       2.53432274
O        6.05624023       4.97575587       5.33986948       1.54112613       2.63021779       0.20401138
O        7.02742683       1.00445155       0.57544665       5.84747219       1.11059618       1.08251023
O       -0.10074041       0.55842591       8.80779756       4.79454756      -3.71431661      -1.53062737
O        1.14209676       5.65122213       4.02580777       0.55242842      -3.11055946       1.86535633
O        4.70334071       3.50677233       5.67482584      -1.10617363     -35.67074966      16.96137428
O        5.15972198       2.79053785       1.13211249       3.94542623      -2.20063472      -3.76944256
S       -0.40792048       1.69208917       9.63539094       8.17884159       1.03848135      -0.60768098
S        0.89374294       4.28972099       4.69667691       3.18780208      15.18099117     -95.22077942
S        4.60987197       4.63572068       5.29447660      -1.14494002      27.84888268     -14.89411545
S        5.89140180       1.67090887       0.11650190      23.15408325       4.01033449      98.95803070
3
Properties=species:S:1:pos:R:3:forces:R:3 type=mol mad_index=8373 source=MAD energy=-13.365507125854492 stress="0.0 0.0 0.0 0.0 0.0 0.0 0.0 0.0 0.0" pbc="F F F"
O       14.08751582      12.50000000      12.50000000       0.14036827       0.57409894       0.13276997
P       12.50000000      12.69517179      12.54096238      -0.82228166      -0.40064323      -0.26172578
P       15.30093272      13.31187151      13.20212920       0.68191338      -0.17345573       0.12895581
24
Properties=species:S:1:pos:R:3:forces:R:3 type=mol mad_index=15926 source=MAD energy=-147.21160888671875 stress="0.0 0.0 0.0 0.0 0.0 0.0 0.0 0.0 0.0" pbc="F F F"
H       12.50000000      14.92058044      13.98063100       0.27533010      -0.07861838      -0.09989949
H       13.05586473      17.23399871      14.79962823       0.26061741      -0.01966666      -0.09525077
O       13.28277967      15.65263153      16.83936932       1.36316240      -0.69503462      -1.26009321
H       13.38005363      13.32239260      17.84722173       0.27227294       0.03308188      -0.10559851
C       13.55553298      14.73537682      13.73786240       0.16752094       0.04264241      -0.06659416
H       13.74678484      15.03181410      12.69933535      -0.10549913      -0.05896056       0.24115595
H       13.77614678      13.66554432      13.83367627      -0.08683975       0.22320805       0.02418709
C       14.10978737      15.12156253      16.10849706      -0.70132697      -0.04354085       1.36782825
C       14.10483388      17.06910799      14.52558825      -0.11520478      -0.02970984       0.03355941
H       14.26331813      17.37378555      13.48226510      -0.04454543       0.00717602       0.30398238
C       14.45213135      15.57274115      14.67682082      -0.28716686      -0.02818885       0.03475393
C       14.46589973      13.45660243      17.76277394      -0.05838309       0.21133465      -0.09640743
H       14.72618713      17.69498224      15.17945903      -0.14434552      -0.11441711      -0.17583713
O       14.80263350      13.99349787      16.45213400      -0.69321287       0.42843947       0.31509089
H       14.80198201      14.14806982      18.54689400      -0.01132047      -0.16213614      -0.23461983
H       14.99378200      12.50000000      17.82985309      -0.13925584       0.27914208      -0.01971393
C       15.93943720      15.37729049      14.41082324       0.48527068      -0.26672754      -0.46246958
N       16.26679539      14.63234339      13.41066898       0.30437210       0.42991173       0.63461429
H       16.44927288      16.48142973      16.19563524       0.15252568      -0.07969019      -0.21045016
C       16.93072951      16.08553438      15.29353708       0.25741279      -0.05405672      -0.11207053
H       17.39507738      16.92326417      14.75160102      -0.16163121      -0.19652845       0.15989892
O       17.68268596      14.57777878      13.24648996      -0.66548109      -0.25132129      -0.57786471
H       17.76851638      13.95592562      12.50000000      -0.06080914       0.29485229       0.45022628
H       17.73845201      15.39959417      15.57955766      -0.26346281       0.12880860      -0.04842770
4
Lattice="4.5416959672911 0.0 0.0 2.7168070061372e-05 4.5794445999435 0.0 0.0 0.0 28.18586302" Properties=species:S:1:pos:R:3:forces:R:3 type=surf mad_index=1477 source=MAD energy=-16.065980911254883 stress="0.0 0.0 0.0 0.0 0.0 0.0 0.0 0.0 0.0" pbc="T T F"
Sn       1.13503435       1.98732140      12.76221469      -0.01231052      -0.01035930      -0.05067427
Sn       3.40633674       4.27687664      15.42366941      -0.05313895      -0.05745673       0.09539865
Te       1.13515884       2.11127669      15.68586302       0.04288311       0.03199697      -0.01423217
Te       3.40622177       4.40072388      12.50000000       0.02256637       0.03581906      -0.03049220
13
Lattice="6.01893 0.0 0.0 -0.5814806530916079 6.837940736397191 0.0 5.366810228978595 -0.37802268696646374 3.6531009582503153" Properties=species:S:1:pos:R:3:forces:R:3 identifier=RSM0004 structure_type=COF energy=-97.24211120605469 stress="-0.00010082194785354659 4.791898390976712e-05 -8.203843754017726e-05 4.791898390976712e-05 -6.299850792856887e-05 -5.832182796439156e-05 -8.203843754017726e-05 -5.832182796439156e-05 -6.019612919772044e-05" pbc="T T T"
Eu       7.35948138       4.19067991       1.86695378      -0.22516231       0.50457841       0.03137589
H        4.76203548       2.34210299       1.98531425       0.34070393       0.10602437       1.83960652
H        7.65117879       1.28764563       3.52476752       0.46636224      -0.15157509      -1.83968425
H       10.10947450       5.13343487       3.29816567      -0.79500842      -0.09184964       1.65342379
C        4.91199264       2.49629685       3.12917322      -0.51816338      -0.21077654      -0.10714614
C        7.84454121       0.99555947       2.40045264      -0.22646426      -0.66943699      -0.23821561
C        4.10887547       5.32729578       0.58950090       0.51406711       0.01039939       0.26930767
O        4.53832755       5.42906705       1.75889505       0.40666398       0.04358046      -1.94538891
O        4.85400072       2.34350498       0.34686194       0.71921080       0.55215585      -1.82354283
O        5.85885976       3.37659943       3.41477265      -0.55174845      -0.68907231      -0.06460385
O        2.89992725       4.93792802       0.31343606       0.30302414      -0.07684917       0.15068716
O        1.96926890       1.84574911       1.45060986      -0.48824030       0.96944505       1.85273635
O        7.29937048       6.61048266       2.17958616       0.05475510      -0.29662365       0.22144414
22
Lattice="4.41191 0.0 0.0 -3.0716766371595137 6.486855879879591 0.0 -3.4863789211865277 -1.4666419901124486 7.651746530116197" Properties=species:S:1:pos:R:3:forces:R:3 identifier=RSM0010 structure_type=MOF energy=-167.30667114257812 stress="-0.00016109412536025047 -0.00010955908510368317 7.50402978155762e-05 -0.00010955908510368317 0.00012381834676489234 2.0074738131370395e-05 7.50402978155762e-05 2.0074738131370395e-05 -0.0001445526722818613" pbc="T T T"
Zn       0.36422172      -0.71047481       3.99773149       0.04557669       0.06336954       0.08414829
Zn      -3.37898561       2.53261296       4.00255209      -0.00543776      -0.01335877       0.03486114
H        1.87596562       1.16322162       0.30561076      -0.19841233       0.21272948      -0.02685473
H       -0.73291834       5.37087216       0.04154898       0.16556151      -0.22026497       0.01421774
C        1.28585219       2.07545621       0.23460255       0.78981614       0.67036951      -0.16276032
C        0.17092703       2.22858788       1.01446855      -0.48795676       0.49541488      -0.14886062
C       -0.58192980       3.42836149       0.97031798       1.32478654       0.34901950       0.52583593
C       -1.24738954       3.87186200       2.24555805       0.07221887       0.31520531       1.09054601
C       -0.19131465       1.09812229       1.91944062      -0.44475251      -1.15717149       0.21171062
C       -0.14257897       4.45881752       0.11263371      -0.86446846      -0.64332455       0.13279779
C       -2.51410757       2.83910872       6.98451423       0.40326828      -0.53053504       0.18864892
C       -1.76098092       1.63924091       7.02881785      -1.38630068      -0.23784754      -0.55567998
C       -1.09546342       1.19607941       5.75350125      -0.20627104      -0.42519245      -1.04916942
C       -2.15166827       3.97001993       6.07992476       0.47528124       1.01816118      -0.26444373
O        3.25425993       0.36095183       1.77359833       0.94257724       0.75044340       0.39610526
O        0.71107089       0.91840364       2.90207791      -0.80181164       0.16573474      -0.25216833
O       -2.31436948       4.55935743       2.27287479       0.65244472      -0.53999484      -0.02609868
O       -0.57285005       3.61524880       3.30616664      -0.43511987       0.03244313      -0.45780313
O       -5.59716706       4.70695178       6.22599660      -0.91373426      -0.73097026      -0.35002586
O       -3.05408430       4.15007759       5.09721095       0.96978831      -0.18545976       0.23559859
O       -0.02812312       0.50941713       5.72488372      -0.58941507       0.46357110       0.03866065
O       -1.77021554       1.45334750       4.69319873       0.49236065       0.14765796       0.34073398
50
Properties=species:S:1:pos:R:3:forces:R:3 type=mol mad_index=15116 source=MAD energy=-295.72210693359375 stress="0.0 0.0 0.0 0.0 0.0 0.0 0.0 0.0 0.0" pbc="F F F"
H       12.50000000      14.90518205      14.44372869       0.13800658       0.33197570       0.06579336
H       12.56403525      16.41152670      15.41527893       0.11022714      -0.16899419      -0.20155816
H       12.72290089      16.49004776      13.64444870      -0.02770971      -0.13837706       0.24133359
C       12.97002326      15.89742038      14.53353479       0.05149866       0.19717751      -0.10157402
H       14.21174205      14.03090670      15.92930924       0.02117112       0.26996985       0.06132435
C       14.49418203      15.74847873      14.63540918      -0.15087742      -0.13531780      -0.06286786
H       14.49631994      15.57352682      16.77848609       0.04212836      -0.27870902      -0.10839751
O       14.73216654      17.93000864      16.14513877       0.29436418      -0.18833558      -1.32313561
H       14.63232520      14.08431251      13.25012614       0.19163373       0.29993713       0.05818682
H       14.81049316      15.69211603      12.50000000       0.04520423      -0.15368861       0.15650979
C       14.79397948      14.96390304      15.91672636       0.19845851       0.06870208      -0.00451548
O       14.75776869      18.21228279      13.66053898       0.42136487      -0.33043528       0.78044796
C       15.06978797      15.08786430      13.37813691      -0.03394251       0.23741290      -0.09152851
S       15.21756676      17.45436758      14.82092449       0.05420473      -0.04122198       0.22977930
H       15.91160135      12.50000000      16.45393172       0.17374957       0.14315097      -0.18110947
H       16.07762400      14.34549840      18.18628032       0.17373642       0.08147700      -0.06897429
H       15.98284164      16.86827560      17.50513355       0.42116937      -0.27206686       0.23330165
H       16.11149657      12.95984657      14.72518303       0.10973583      -0.04466322       0.25414968
H       16.16541222      15.00964791      13.41331510      -0.32626125      -0.00845696       0.02289515
N       16.25087334      14.56280478      16.09332590       0.23522399       0.14256635      -0.29897758
C       16.47522605      13.11901536      15.74461143      -0.02598403      -0.11895796       0.09363553
O       16.69367462      17.19766404      14.84427528      -1.41249657       0.28333765      -0.30721679
C       16.77480185      14.82547966      17.48631843      -0.06975732      -0.08174212       0.03398980
H       16.89504852      15.10413358      15.44892033      -0.57917476      -0.33646107       0.56799895
C       16.87497125      16.30624904      17.82774568      -0.03030890       0.03248199       0.07605718
H       16.95013040      18.77529576      16.88782047       0.34822124      -0.03646920       0.21487713
H       17.00305146      16.41457262      18.91338575      -0.07174827      -0.04289816      -0.17140342
H       17.55188040      12.92436931      15.81024918      -0.37031281       0.00174745      -0.01640236
H       17.75128660      14.31849418      17.53572517      -0.41341910       0.19032536       0.02646339
C       17.90027110      18.48351074      17.34940756      -0.02122446       0.01242522       0.08642204
H       17.94056391      16.82132712      16.14090311       0.07416444       0.04678217       0.81903076
H       17.91185422      18.70965028      18.42310734      -0.02805961      -0.00114465      -0.29337853
N       18.05154756      16.99916384      17.17795566       0.01704197       0.17183235      -0.48307264
O       18.61498154      15.21781346      14.96626940       1.23279321      -0.32927197       0.23731582
H       18.74152422      18.96982569      16.84689182      -0.22016908      -0.06846076       0.15624081
H       19.23428166      15.57341651      18.24621381      -0.03307316       0.30563152      -0.00657412
C       19.39718929      16.50147259      17.68554275      -0.16911885      -0.07537487      -0.09374988
H       19.69671795      17.67545515      15.10029397       0.30773982      -0.05407253       0.20778804
H       19.77473385      17.26685680      18.37948389      -0.00659678      -0.20315900      -0.12094934
O       19.61780928      13.70481666      16.63872458       0.40178698       0.68618000      -0.90685976
S       19.88512656      14.74971343      15.61447359      -0.20564862      -0.12822762       0.10313463
C       20.43435980      16.23557270      16.58908796       0.12591416       0.00654569      -0.02708684
C       20.62049335      17.42424111      15.64005496       0.10860416      -0.14171575      -0.16046955
H       20.96541909      18.30325974      16.20833333      -0.13402732      -0.24641445      -0.17845891
O       20.96428514      14.46392948      14.67322266      -0.69951129       0.03986811       0.48419556
H       21.38250731      17.17375227      14.89176340      -0.15202335       0.11218245       0.16173339
H       21.62052770      14.99414396      17.93669617       0.04907051       0.27648157      -0.12289171
C       21.75279474      15.86479408      17.28028798       0.03046994      -0.10847291      -0.13659006
H       22.12031655      16.71664309      17.87342789      -0.09676483      -0.26991841      -0.14413074
H       22.50044309      15.61152506      16.51864713      -0.09947374       0.06483686       0.23926856
108
Lattice="4.8320985243786 -16.1654170425267 0.0 4.8320985243786 16.1654170425267 0.0 0.0 0.0 12.7831136541012" Properties=species:S:1:pos:R:3:forces:R:3 type=mat base_atoms=4 mad_index=54478 supercell_factor=3 source=MAD energy=-619.4323120117188 stress="-0.0006827319739386439 -0.00044033044832758605 0.00044332476682029665 -0.00044033044832758605 -0.0010602944530546665 7.996072235982865e-05 0.00044332476682029665 7.996072235982865e-05 -0.0011344391386955976" pbc="T T T"
Hf       4.42349306      -9.20618020       1.41793016       6.04471827       5.63931942      -4.61960506
Hf       6.46189228      -7.10281287       3.12352075      -1.07368982      -0.09871246       2.05786991
Al       4.80914225      -5.85762119       1.30137378      -1.72358406      -4.39293766      -2.95018125
Al       6.50072077      -9.95329235       3.23491722      -3.24743581      -1.14766455       5.51191950
Hf       4.42349306      -9.20618020       5.67896804       6.04471540       5.63931894      -4.61960840
Hf       6.46189228      -7.10281287       7.38455863      -1.07368612      -0.09871139       2.05786991
Al       4.80914225      -5.85762119       5.56241166      -1.72358382      -4.39293289      -2.95018554
Al       6.50072077      -9.95329235       7.49595510      -3.24743056      -1.14766419       5.51191759
Hf       4.42349306      -9.20618020       9.94000593       6.04471397       5.63932371      -4.61960316
Hf       6.46189228      -7.10281287      11.64559652      -1.07369280      -0.09871045       2.05786633
Al       4.80914225      -5.85762119       9.82344955      -1.72358179      -4.39293289      -2.95017695
Al       6.50072077      -9.95329235      11.75699299      -3.24744177      -1.14767027       5.51191044
Hf       6.03419257      -3.81770786       1.41793016       6.04471397       5.63931751      -4.61960077
Hf       8.07259179      -1.71434053       3.12352075      -1.07369161      -0.09871335       2.05787086
Al       6.41984176      -0.46914885       1.30137378      -1.72358716      -4.39293623      -2.95018268
Al       8.11142028      -4.56482001       3.23491722      -3.24743629      -1.14766920       5.51191521
Hf       6.03419257      -3.81770786       5.67896804       6.04471111       5.63931561      -4.61960220
Hf       8.07259179      -1.71434053       7.38455863      -1.07369113      -0.09871281       2.05787253
Al       6.41984176      -0.46914885       5.56241166      -1.72358716      -4.39293861      -2.95018458
Al       8.11142028      -4.56482001       7.49595510      -3.24743080      -1.14766717       5.51191998
Hf       6.03419257      -3.81770786       9.94000593       6.04470825       5.63931227      -4.61960125
Hf       8.07259179      -1.71434053      11.64559652      -1.07369483      -0.09871266       2.05787158
Al       6.41984176      -0.46914885       9.82344955      -1.72358537      -4.39293194      -2.95017576
Al       8.11142028      -4.56482001      11.75699299      -3.24743652      -1.14767182       5.51190948
Hf       7.64489208       1.57076449       1.41793016       6.04470968       5.63931656      -4.61960030
Hf       4.85119278     -12.49128522       3.12352075      -1.07369423      -0.09870821       2.05787158
Al       8.03054127       4.91932350       1.30137378      -1.72358894      -4.39294481      -2.95018268
Al       4.89002127     -15.34176470       3.23491722      -3.24743247      -1.14766467       5.51191425
Hf       7.64489208       1.57076449       5.67896804       6.04470825       5.63931322      -4.61959839
Hf       4.85119278     -12.49128522       7.38455863      -1.07369101      -0.09871098       2.05787086
Al       8.03054127       4.91932350       5.56241166      -1.72358871      -4.39294577      -2.95018673
Al       4.89002127     -15.34176470       7.49595510      -3.24742961      -1.14766121       5.51191568
Hf       7.64489208       1.57076449       9.94000593       6.04470301       5.63931417      -4.61959743
Hf       4.85119278     -12.49128522      11.64559652      -1.07369447      -0.09870727       2.05787086
Al       8.03054127       4.91932350       9.82344955      -1.72358608      -4.39294100      -2.95018005
Al       4.89002127     -15.34176470      11.75699299      -3.24743629      -1.14766645       5.51190329
Hf       1.20209405       1.57076449       1.41793016       6.04471064       5.63931751      -4.61959696
Hf       3.24049327       3.67413182       3.12352075      -1.07368863      -0.09871620       2.05787039
Al       1.58774324       4.91932350       1.30137378      -1.72358453      -4.39293766      -2.95018172
Al       3.27932176       0.82365234       3.23491722      -3.24743032      -1.14766109       5.51191378
Hf       1.20209405       1.57076449       5.67896804       6.04471207       5.63931513      -4.61959839
Hf       3.24049327       3.67413182       7.38455863      -1.07368839      -0.09871592       2.05786920
Al       1.58774324       4.91932350       5.56241166      -1.72358763      -4.39293766      -2.95018601
Al       3.27932176       0.82365234       7.49595510      -3.24742937      -1.14765966       5.51191139
Hf       1.20209405       1.57076449       9.94000593       6.04470396       5.63931322      -4.61959648
Hf       3.24049327       3.67413182      11.64559652      -1.07369030      -0.09871473       2.05786848
Al       1.58774324       4.91932350       9.82344955      -1.72358453      -4.39293766      -2.95017862
Al       3.27932176       0.82365234      11.75699299      -3.24744010      -1.14766657       5.51190710
Hf       2.81279356       6.95923684       1.41793016       6.04471207       5.63931990      -4.61960220
Hf       4.85119278       9.06260417       3.12352075      -1.07369041      -0.09871225       2.05786896
Al       3.19844275      10.30779585       1.30137378      -1.72358322      -4.39293575      -2.95018291
Al       4.89002127       6.21212469       3.23491722      -3.24743891      -1.14766467       5.51191854
Hf       2.81279356       6.95923684       5.67896804       6.04471540       5.63931799      -4.61960173
Hf       4.85119278       9.06260417       7.38455863      -1.07369041      -0.09871711       2.05786848
Al       3.19844275      10.30779585       5.56241166      -1.72358155      -4.39293766      -2.95018888
Al       4.89002127       6.21212469       7.49595510      -3.24743319      -1.14766669       5.51191568
Hf       2.81279356       6.95923684       9.94000593       6.04470921       5.63931942      -4.61960220
Hf       4.85119278       9.06260417      11.64559652      -1.07369637      -0.09871122       2.05786896
Al       3.19844275      10.30779585       9.82344955      -1.72357988      -4.39293098      -2.95017862
Al       4.89002127       6.21212469      11.75699299      -3.24744439      -1.14766788       5.51190758
Hf       4.42349306      12.34770919       1.41793016       6.04471111       5.63930941      -4.61960220
Hf       1.62979376      -1.71434053       3.12352075      -1.07368779      -0.09871439       2.05787134
Al       4.80914225      15.69626820       1.30137378      -1.72358584      -4.39293861      -2.95018506
Al       1.66862225      -4.56482001       3.23491722      -3.24743271      -1.14766657       5.51191759
Hf       4.42349306      12.34770919       5.67896804       6.04471207       5.63931036      -4.61960316
Hf       1.62979376      -1.71434053       7.38455863      -1.07368731      -0.09871367       2.05786920