9
Lattice="0.0 5.2041249688531 5.2041249688531 5.2041249688531 0.0 5.2041249688531 5.2041249688531 5.2041249688531 0.0" Properties=species:S:1:pos:R:3:forces:R:3 type=mat mad_index=35510 source=MAD energy=-31.740333557128906 stress="-0.004326896741986275 -1.747454143696814e-05 -3.5714438126888126e-05 -1.747454143696814e-05 -0.004369370173662901 0.00010387329894001596 -3.5714438126888126e-05 0.00010387329894001596 -0.00486408406868577" pbc="T T T"
Cs       2.60206248       2.60206248       7.80618745       0.00595621      -0.01055506      -0.02113043
Cs       2.60206248       7.80618745       7.80618745       0.01971859       0.00043397      -0.01718842
Pb       0.00000000       0.00000000       0.00000000       0.00046036       0.00425081      -0.00535742
Cl       7.86262757       0.00000000       0.00000000      -0.03831273       0.00564754      -0.01325665
Cl       5.20412497       2.65850260       0.00000000      -0.00860450      -0.03328341       0.00845721
Cl       0.00000000       0.00000000       7.86262757      -0.00484519       0.00122196      -0.00536025
Cl       5.20412497       0.00000000       7.74974733      -0.00805017      -0.00762706       0.07877219
Cl       5.20412497       7.74974733       0.00000000      -0.00196969       0.04160893      -0.01513892
Cl       2.54562237       0.00000000       0.00000000       0.03564686      -0.00169752      -0.00979744
4
Lattice="1.8408994024075 -4.9720805213643 0.0 1.8408994024075 4.9720805213643 0.0 0.0 0.0 3.9815093622668" Properties=species:S:1:pos:R:3:forces:R:3 type=mat mad_index=45961 source=MAD energy=-19.077463150024414 stress="-0.052677471190690994 -0.002260404173284769 -0.015422419179230928 -0.002260404173284769 -0.10409282892942429 -0.00519964681006968 -0.015422419179230928 -0.00519964681006968 -0.0880834087729454" pbc="T T T"
Ni       1.49432416       8.63659958       2.98629649       1.00253177       3.50417709       0.35665965
Ni       0.27102197       5.60628035       1.18985670      -1.71986771      -1.34399176      -0.58584851
Bi       1.48441767       6.33193081       3.13188612       1.51100469      -2.94823170       0.44135880
Bi      -0.11098398       8.33052148       1.08696617      -0.79366869       0.78804702      -0.21216998
9
Lattice="3.8374403285268 2.7998855143619 -0.37673649695331 -3.8374403285268 2.7998855143619 0.37673649695331 -1.2892878410646 0.0 4.2916602019414" Properties=species:S:1:pos:R:3:forces:R:3 type=mat mad_index=37745 source=MAD energy=-56.549781799316406 stress="0.0156593918800354 0.00012980786414118484 -0.004853430669754744 0.00012980786414118484 0.004248489625751972 0.0004345654451753944 -0.004853430669754744 0.0004345654451753944 0.0021877239923924208" pbc="T T T"
Li       5.07077330       0.00000000       2.58747258      -0.15728609       0.01007833      -0.06664269
Li       4.61557817       4.16435426      -0.21806416      -0.10470373      -0.11060903       0.03948488
Li       4.61557817       1.43541677      -0.21806416      -0.08705758       0.08811086       0.02368056
Li       1.97934927       0.00000000       2.04746866       0.00534107      -0.00961840      -0.04475550
C       -0.91847755       0.00000000       1.87971272       0.22486010       0.05562517      -0.20971906
O        2.74351336       3.94591501       2.31282453       0.10529373      -0.27329540      -0.02681839
O        2.74351336       1.65385602       2.31282453       0.09334151       0.24273467       0.00098777
O        0.32193833       0.00000000       1.29304104      -0.31604123       0.00433450       0.06357116
O        5.74781444       0.00000000       0.11184309       0.23625219      -0.00736043       0.22021139
12
Lattice="2.7245145790327 1.5729992255799 8.3941448179575 -2.7245145790327 1.5729992255799 8.3941448179575 7.4933082887965e-19 -3.1459984511598 8.3941448179575" Properties=species:S:1:pos:R:3:forces:R:3 type=mat mad_index=66070 source=MAD energy=-54.16640853881836 stress="-0.10559666156768799 0.008625929243862629 -0.008481152355670929 0.008625929243862629 -0.02830887772142887 0.005815273616462946 -0.008481152355670929 0.005815273616462946 -0.058427635580301285" pbc="T T T"
Y       -0.12569787      -0.00359074      21.05401023       0.37300491      -1.29913175       3.99503517
Y       -0.20879704       3.22478133      20.10616050       1.53274143      -0.77168888       1.04573917
Y       -0.00389472       0.25363596      -0.12612479       0.59377313      -0.71504200      -1.12176704
Al      -0.07428669       4.41351611      23.02755549      -0.78521550       1.46986008       0.35087419
Al       1.55577642       2.55401400      23.02373845      -5.90630913      -0.47935537      -0.59403992
Al       1.19847425       0.91824960      18.91250383       1.20843220      -0.20687774      -3.19184685
Al       4.20442831       0.70300618      18.59535295      -1.33290684       0.57065648      -0.35521963
Al       2.91870799       3.08805087      18.59439785      -1.58519173       0.78390652       0.71033829
Al      -1.86995589       2.40339852      23.36241170       7.65898943       0.80435264      -1.60640836
Al       2.68853207       1.26841961      20.76545291       0.13291147       1.55143619       1.50050521
Cu       2.84479900       1.51566487      25.14757889      -1.20669508      -0.99092472       0.81757784
Cu       2.91586540       1.70080174      16.84369705      -0.68353426      -0.71719128      -1.55078864
26
Lattice="7.5152892703511 2.9720674150093 -0.046316551497553 -7.5152892703511 2.9720674150093 0.046316551497553 -2.2529502374525 0.0 9.7836051155365" Properties=species:S:1:pos:R:3:forces:R:3 type=mat mad_index=59867 source=MAD energy=-116.8186264038086 stress="-0.08610326051712036 0.0051100284326821566 -0.09909333288669586 0.0051100284326821566 -0.11243730038404465 0.058501189574599266 -0.09909333288669586 0.058501189574599266 -0.4596288502216339" pbc="T T T"
Rb       1.07162236       1.60459668       6.10429763       0.44765097      -1.69722283       0.88413876
Rb       2.70460607       4.41847668       1.94721919       0.16092516       0.58077043      -1.36631727
Rb       2.57770767       4.60794542       8.31456126       0.14276725       0.15914635       0.54339445
Rb       4.81471706       1.88422195       3.58175667      -5.20028639       0.30233359      -2.19684100
Rb      -1.58080671       3.60100314       7.09630513       0.16698553       2.09328485       2.04310369
Rb      -0.57446409       2.27619069       2.77712290      -0.35929734      -2.11227608      -1.97690511
O        3.27758613       1.59966181       8.92375740     -32.76084518      -3.68428397     -95.70013428
O        4.44665976       4.28752896       3.80421373      -1.36043262       4.44349575      -0.21523833
O        0.80944075       4.09880678       5.73391357      -4.93960571     -13.96560287      90.78645325
O        2.00976441       1.56913495       1.29588062       0.86676711       0.88722992      -0.33106041
O        0.73840281       2.93245036       8.82424935      -3.97432423      -2.46281195       2.23055983
O        1.65357516       3.00438459       3.89988044      -1.79203379       4.69312620       2.92986679
O        3.61379657       5.60974185       5.86602515       1.43033636      -0.97547835      -0.42038018
O        4.86690568       0.24867543       0.74681467       0.67242789       1.42889082       0.22320125
O       -1.72096467       1.65400502       9.30642693     -10.85696602       3.79121423      -1.53618526
O       -0.92675149       4.09773713       4.22874794       8.74537182       0.78552496       2.67980242
O        6.05624023       4.97575587       5.33986948       1.37558484       2.41906047       0.17207225
O        7.02742683       1.00445155       0.57544665       4.92461348       0.98334610       0.75882393
O       -0.10074041       0.55842591       8.80779756       4.73316574      -3.67855430      -1.60814619
O        1.14209676       5.65122213       4.02580777       0.46282965      -3.55069184       2.48786831
O        4.70334071       3.50677233       5.67482584      -1.16429424     -35.37167358      16.91178894
O        5.15972198       2.79053785       1.13211249       3.87970304      -2.33738351      -4.11461020
S       -0.40792048       1.69208917       9.63539094       8.55694389       0.81465948       0.26292640
S        0.89374294       4.28972099       4.69667691       2.86020517      14.24651337     -96.03681946
S        4.60987197       4.63572068       5.29447660      -0.67196167      27.92630959     -16.22731400
S        5.89140180       1.67090887       0.11650190      23.65376663       4.28107691      98.81594849
3
Properties=species:S:1:pos:R:3:forces:R:3 type=mol mad_index=8373 source=MAD energy=-13.36550521850586 stress="-inf -inf -inf -inf inf inf -inf inf inf" pbc="F F F"
O       14.08751582      12.50000000      12.50000000      -0.41329157       1.77985835       1.20115912
P       12.50000000      12.69517179      12.54096238      -0.90049005      -1.13169003      -0.85301685
P       15.30093272      13.31187151      13.20212920       1.31378186      -0.64816833      -0.34814227
24
Properties=species:S:1:pos:R:3:forces:R:3 type=mol mad_index=15926 source=MAD energy=-147.2115936279297 stress="inf -inf -inf -inf inf inf -inf inf inf" pbc="F F F"
H       12.50000000      14.92058044      13.98063100       0.27916181      -0.07238103      -0.06997915
H       13.05586473      17.23399871      14.79962823       0.23704639      -0.06616686      -0.07223575
O       13.28277967      15.65263153      16.83936932       1.19188643      -0.66309869      -1.17242312
H       13.38005363      13.32239260      17.84722173       0.30757788       0.02323247      -0.07178427
C       13.55553298      14.73537682      13.73786240       0.11995524      -0.03290820      -0.05164939
H       13.74678484      15.03181410      12.69933535      -0.06162353      -0.05003339       0.27464032
H       13.77614678      13.66554432      13.83367627      -0.08553354       0.24904367      -0.01403517
C       14.10978737      15.12156253      16.10849706      -0.58538479       0.00672123       1.01847267
C       14.10483388      17.06910799      14.52558825      -0.06001897       0.01493430       0.03519181
H       14.26331813      17.37378555      13.48226510      -0.02509593      -0.06732415       0.28512377
C       14.45213135      15.57274115      14.67682082      -0.01255089      -0.02555817       0.09487766
C       14.46589973      13.45660243      17.76277394       0.02935833       0.11948948      -0.17594385
H       14.72618713      17.69498224      15.17945903      -0.14931728      -0.13577053      -0.16343009
O       14.80263350      13.99349787      16.45213400      -0.63063401       0.55809468       0.22371837
H       14.80198201      14.14806982      18.54689400      -0.06079848      -0.17350450      -0.26919255
H       14.99378200      12.50000000      17.82985309      -0.12761326       0.27899134      -0.03646949
C       15.93943720      15.37729049      14.41082324       0.34922284      -0.32716873      -0.44347623
N       16.26679539      14.63234339      13.41066898      -0.03805602       0.42945656       0.58297443
H       16.44927288      16.48142973      16.19563524       0.13599861      -0.10604581      -0.20526615
C       16.93072951      16.08553438      15.29353708       0.06105989      -0.05511057      -0.01273327
H       17.39507738      16.92326417      14.75160102      -0.15303345      -0.17019632       0.14921381
O       17.68268596      14.57777878      13.24648996      -0.37292957      -0.31577438      -0.29809308
H       17.76851638      13.95592562      12.50000000      -0.14549746       0.39497057       0.46619982
H       17.73845201      15.39959417      15.57955766      -0.20318039       0.18610689      -0.07370069
4
Lattice="4.5416959672911 0.0 0.0 2.7168070061372e-05 4.5794445999435 0.0 0.0 0.0 28.18586302" Properties=species:S:1:pos:R:3:forces:R:3 type=surf mad_index=1477 source=MAD energy=-16.065980911254883 stress="0.0017376197502017021 4.144120157434372e-05 2.543002938182326e-05 4.144120157434372e-05 0.0016626620199531317 3.2351292134080722e-06 2.543002938182326e-05 3.2351292134080722e-06 0.0017025828128680587" pbc="T T F"
Sn       1.13503435       1.98732140      12.76221469      -0.00627355      -0.08885001       0.02352111
Sn       3.40633674       4.27687664      15.42366941      -0.00409122      -0.07775806      -0.04346410
Te       1.13515884       2.11127669      15.68586302       0.00205427       0.07876639      -0.27533662
Te       3.40622177       4.40072388      12.50000000       0.00831052       0.08784166       0.29527962
13
Lattice="6.01893 0.0 0.0 -0.5814806530916079 6.837940736397191 0.0 5.366810228978595 -0.37802268696646374 3.6531009582503153" Properties=species:S:1:pos:R:3:forces:R:3 identifier=RSM0004 structure_type=COF energy=-97.24211120605469 stress="0.0114052789285779 -0.0012489426881074905 0.0024975697742775083 -0.0012489426881074905 0.026074903085827827 0.004683897830545902 0.0024975697742775083 0.004683897830545902 0.0020525252912193537" pbc="T T T"
Eu       7.35948138       4.19067991       1.86695378      -0.51967126       0.77036178       0.16480166
H        4.76203548       2.34210299       1.98531425       0.36007994       0.13155225       1.85380566
H        7.65117879       1.28764563       3.52476752       0.36618301      -0.21460950      -1.91690028
H       10.10947450       5.13343487       3.29816567      -0.89855468      -0.11438742       1.60697341
C        4.91199264       2.49629685       3.12917322      -0.60434353       0.14695829       0.27055687
C        7.84454121       0.99555947       2.40045264      -0.16955546      -0.06672621       0.02884465
C        4.10887547       5.32729578       0.58950090       0.36026329      -0.19468705       0.22190371
O        4.53832755       5.42906705       1.75889505       0.68692338      -0.03611836      -2.02670455
O        4.85400072       2.34350498       0.34686194       0.79377532       0.48125291      -1.92018092
O        5.85885976       3.37659943       3.41477265      -0.72211051      -0.96585786      -0.35846961
O        2.89992725       4.93792802       0.31343606       0.72116673      -0.04543953       0.15860794
O        1.96926890       1.84574911       1.45060986      -0.42741174       0.95878780       1.87639511
O        7.29937048       6.61048266       2.17958616       0.05325535      -0.85108727       0.04036579
22
Lattice="4.41191 0.0 0.0 -3.0716766371595137 6.486855879879591 0.0 -3.4863789211865277 -1.4666419901124486 7.651746530116197" Properties=species:S:1:pos:R:3:forces:R:3 identifier=RSM0010 structure_type=MOF energy=-167.3066864013672 stress="0.01602732390165329 -0.011518448125571012 0.0024948533391579986 -0.011518448125571012 0.030976733192801476 -0.004872362595051527 0.0024948533391579986 -0.004872362595051527 0.011481121182441711" pbc="T T T"
Zn       0.36422172      -0.71047481       3.99773149      -0.02709941      -0.00069403       0.02593658
Zn      -3.37898561       2.53261296       4.00255209       0.02289470       0.02034786       0.00136552
H        1.87596562       1.16322162       0.30561076      -0.31785023       0.26026994      -0.13535504
H       -0.73291834       5.37087216       0.04154898       0.30635208      -0.25821209       0.12221642
C        1.28585219       2.07545621       0.23460255       0.80927634       0.06044461      -0.42844081
C        0.17092703       2.22858788       1.01446855      -0.44405568       0.27118367       0.34532413
C       -0.58192980       3.42836149       0.97031798       1.60746169       0.44753855       1.28236973
C       -1.24738954       3.87186200       2.24555805       0.27966270       0.15160550       0.42602035
C       -0.19131465       1.09812229       1.91944062      -0.27497852      -0.62907439       0.22019154
C       -0.14257897       4.45881752       0.11263371      -0.76803756      -0.05274272       0.37919706
C       -2.51410757       2.83910872       6.98451423       0.44922441      -0.35469937      -0.34581274
C       -1.76098092       1.63924091       7.02881785      -1.62758410      -0.39637315      -1.21880555
C       -1.09546342       1.19607941       5.75350125      -0.24294248      -0.22645700      -0.43337953
C       -2.15166827       3.97001993       6.07992476       0.24537945       0.60134029      -0.21553944
O        3.25425993       0.36095183       1.77359833       1.07517731       0.69434452       0.29610157
O        0.71107089       0.91840364       2.90207791      -0.81517130       0.21185625      -0.36813387
O       -2.31436948       4.55935743       2.27287479       0.60665369      -0.45336804       0.19655591
O       -0.57285005       3.61524880       3.30616664      -0.58409917       0.03276390      -0.17868590
O       -5.59716706       4.70695178       6.22599660      -1.07194519      -0.68190747      -0.30467874
O       -3.05408430       4.15007759       5.09721095       0.81114471      -0.16945741       0.31679043
O       -0.02812312       0.50941713       5.72488372      -0.62092322       0.48926565      -0.19153324
O       -1.77021554       1.45334750       4.69319873       0.58145964      -0.01797566       0.20829564
50
Properties=species:S:1:pos:R:3:forces:R:3 type=mol mad_index=15116 source=MAD energy=-295.72210693359375 stress="inf -inf inf -inf inf -inf inf -inf inf" pbc="F F F"
H       12.50000000      14.90518205      14.44372869       0.17661804       0.29262927       0.03254227
H       12.56403525      16.41152670      15.41527893       0.14476982      -0.11982703      -0.22239652
H       12.72290089      16.49004776      13.64444870       0.03551223      -0.10013263       0.20898974
C       12.97002326      15.89742038      14.53353479      -0.00319690       0.08216683      -0.02246214
H       14.21174205      14.03090670      15.92930924       0.13217498       0.21985060      -0.01895440
C       14.49418203      15.74847873      14.63540918       0.01649600      -0.08201712       0.05972283
H       14.49631994      15.57352682      16.77848609       0.10000746      -0.21089436      -0.16100961
O       14.73216654      17.93000864      16.14513877       0.31945848      -0.32616961      -1.07119560
H       14.63232520      14.08431251      13.25012614       0.12361662       0.29249746       0.04944588
H       14.81049316      15.69211603      12.50000000       0.05206732      -0.10553749       0.18094155
C       14.79397948      14.96390304      15.91672636       0.12991375       0.05579142       0.04507539
O       14.75776869      18.21228279      13.66053898       0.34931263      -0.57818776       0.82208204
C       15.06978797      15.08786430      13.37813691       0.06134745       0.12166262      -0.06798267
S       15.21756676      17.45436758      14.82092449       0.11181784       0.15762782       0.22909161
H       15.91160135      12.50000000      16.45393172       0.16991553       0.16720574      -0.17982674
H       16.07762400      14.34549840      18.18628032       0.09510757       0.10003623      -0.17446315
H       15.98284164      16.86827560      17.50513355       0.29538023      -0.16664840       0.07943511
H       16.11149657      12.95984657      14.72518303       0.08627297       0.00466510       0.25267994
H       16.16541222      15.00964791      13.41331510      -0.24003428       0.02373132       0.01258852
N       16.25087334      14.56280478      16.09332590       0.27764997       0.06728692      -0.01728451
C       16.47522605      13.11901536      15.74461143      -0.02406460       0.08397412      -0.00288507
O       16.69367462      17.19766404      14.84427528      -1.11677885       0.26908898      -0.10212300
C       16.77480185      14.82547966      17.48631843       0.06246361      -0.07807630      -0.02373308
H       16.89504852      15.10413358      15.44892033      -0.44125378      -0.17265949       0.35475773
C       16.87497125      16.30624904      17.82774568      -0.01695937       0.04590833      -0.01038653
H       16.95013040      18.77529576      16.88782047       0.26709932      -0.09814824       0.12770796
H       17.00305146      16.41457262      18.91338575       0.03496849      -0.01914557      -0.23395436
H       17.55188040      12.92436931      15.81024918      -0.30742109       0.07543974       0.00021085
H       17.75128660      14.31849418      17.53572517      -0.29957920       0.15435024      -0.02814732
C       17.90027110      18.48351074      17.34940756       0.00265533      -0.07588816      -0.02091773
H       17.94056391      16.82132712      16.14090311       0.12436347       0.00587006       0.53818107
H       17.91185422      18.70965028      18.42310734      -0.00364684      -0.07243888      -0.31117591
N       18.05154756      16.99916384      17.17795566      -0.17737672      -0.04993783      -0.23713854
O       18.61498154      15.21781346      14.96626940       0.84811795      -0.40832192       0.26698434
H       18.74152422      18.96982569      16.84689182      -0.20626105      -0.10057106       0.16383827
H       19.23428166      15.57341651      18.24621381      -0.04666772       0.26503527      -0.08855127
C       19.39718929      16.50147259      17.68554275      -0.11069861      -0.03830552      -0.01672822
H       19.69671795      17.67545515      15.10029397       0.27346307      -0.08195683       0.16014402
H       19.77473385      17.26685680      18.37948389      -0.09815140      -0.16276143      -0.19209032
O       19.61780928      13.70481666      16.63872458       0.24156785       0.79272413      -0.79443955
S       19.88512656      14.74971343      15.61447359      -0.11653735      -0.17669916       0.02546108
C       20.43435980      16.23557270      16.58908796      -0.01530617       0.04196596       0.04520097
C       20.62049335      17.42424111      15.64005496       0.01250542      -0.05685017      -0.10826945
H       20.96541909      18.30325974      16.20833333      -0.11121762      -0.27220920      -0.16653514
O       20.96428514      14.46392948      14.67322266      -0.79448557       0.24204472       0.69812703
H       21.38250731      17.17375227      14.89176340      -0.15363306       0.02927649       0.15513521
H       21.62052770      14.99414396      17.93669617       0.01115458       0.23542587      -0.19549388
C       21.75279474      15.86479408      17.28028798       0.03583330      -0.06641534      -0.02342328
H       22.12031655      16.71664309      17.87342789      -0.14389729      -0.24320826      -0.18491700
H       22.50044309      15.61152506      16.51864713      -0.16446346       0.03675289       0.16814160
108
Lattice="4.8320985243786 -16.1654170425267 0.0 4.8320985243786 16.1654170425267 0.0 0.0 0.0 12.7831136541012" Properties=species:S:1:pos:R:3:forces:R:3 type=mat base_atoms=4 mad_index=54478 supercell_factor=3 source=MAD energy=-619.4323120117188 stress="-0.07873085141181946 -0.08818982169032097 0.05140194669365883 -0.08818982169032097 -0.09158683568239212 0.024397963657975197 0.05140194669365883 0.024397963657975197 -0.11850031465291977" pbc="T T T"
Hf       4.42349306      -9.20618020       1.41793016       6.04416704       5.39527702      -4.97986221
Hf       6.46189228      -7.10281287       3.12352075      -1.09913754       0.02875172       1.87740219
Al       4.80914225      -5.85762119       1.30137378      -1.61669803      -4.51341629      -2.67263937
Al       6.50072077      -9.95329235       3.23491722      -3.32832050      -0.91060233       5.77510786
Hf       4.42349306      -9.20618020       5.67896804       6.04417086       5.39527369      -4.97987080
Hf       6.46189228      -7.10281287       7.38455863      -1.09913802       0.02874842       1.87740219
Al       4.80914225      -5.85762119       5.56241166      -1.61669874      -4.51341438      -2.67264247
Al       6.50072077      -9.95329235       7.49595510      -3.32832646      -0.91059750       5.77511454
Hf       4.42349306      -9.20618020       9.94000593       6.04417038       5.39527035      -4.97987700
Hf       6.46189228      -7.10281287      11.64559652      -1.09913921       0.02875544       1.87740338
Al       4.80914225      -5.85762119       9.82344955      -1.61670041      -4.51341295      -2.67263460
Al       6.50072077      -9.95329235      11.75699299      -3.32831907      -0.91060811       5.77509403
Hf       6.03419257      -3.81770786       1.41793016       6.04416227       5.39526606      -4.97986126
Hf       8.07259179      -1.71434053       3.12352075      -1.09914327       0.02874859       1.87740302
Al       6.41984176      -0.46914885       1.30137378      -1.61669564      -4.51341200      -2.67264080
Al       8.11142028      -4.56482001       3.23491722      -3.32831955      -0.91059875       5.77510738
Hf       6.03419257      -3.81770786       5.67896804       6.04416561       5.39525795      -4.97986937
Hf       8.07259179      -1.71434053       7.38455863      -1.09914207       0.02874969       1.87740541
Al       6.41984176      -0.46914885       5.56241166      -1.61669922      -4.51340437      -2.67264533
Al       8.11142028      -4.56482001       7.49595510      -3.32832336      -0.91059530       5.77511597
Hf       6.03419257      -3.81770786       9.94000593       6.04416895       5.39525986      -4.97987652
Hf       8.07259179      -1.71434053      11.64559652      -1.09914374       0.02875389       1.87740409
Al       6.41984176      -0.46914885       9.82344955      -1.61669779      -4.51340675      -2.67263651
Al       8.11142028      -4.56482001      11.75699299      -3.32831836      -0.91060627       5.77509689
Hf       7.64489208       1.57076449       1.41793016       6.04415560       5.39526176      -4.97985649
Hf       4.85119278     -12.49128522       3.12352075      -1.09914136       0.02875490       1.87740254
Al       8.03054127       4.91932350       1.30137378      -1.61670208      -4.51341629      -2.67264080
Al       4.89002127     -15.34176470       3.23491722      -3.32832336      -0.91059643       5.77510548
Hf       7.64489208       1.57076449       5.67896804       6.04415846       5.39525414      -4.97986460
Hf       4.85119278     -12.49128522       7.38455863      -1.09914160       0.02875392       1.87740445
Al       8.03054127       4.91932350       5.56241166      -1.61670399      -4.51341152      -2.67264557
Al       4.89002127     -15.34176470       7.49595510      -3.32832432      -0.91059506       5.77510929
Hf       7.64489208       1.57076449       9.94000593       6.04415417       5.39525318      -4.97986364
Hf       4.85119278     -12.49128522      11.64559652      -1.09914327       0.02875753       1.87740409
Al       8.03054127       4.91932350       9.82344955      -1.61670411      -4.51341057      -2.67263889
Al       4.89002127     -15.34176470      11.75699299      -3.32832193      -0.91060203       5.77509022
Hf       1.20209405       1.57076449       1.41793016       6.04415560       5.39527130      -4.97985458
Hf       3.24049327       3.67413182       3.12352075      -1.09914088       0.02874754       1.87740076
Al       1.58774324       4.91932350       1.30137378      -1.61669779      -4.51342106      -2.67264175
Al       3.27932176       0.82365234       3.23491722      -3.32832289      -0.91059661       5.77511024
Hf       1.20209405       1.57076449       5.67896804       6.04416180       5.39526415      -4.97986889
Hf       3.24049327       3.67413182       7.38455863      -1.09913731       0.02874509       1.87740350
Al       1.58774324       4.91932350       5.56241166      -1.61669898      -4.51341581      -2.67264795
Al       3.27932176       0.82365234       7.49595510      -3.32832670      -0.91059434       5.77511597
Hf       1.20209405       1.57076449       9.94000593       6.04416943       5.39525604      -4.97987509
Hf       3.24049327       3.67413182      11.64559652      -1.09914303       0.02874885       1.87740207
Al       1.58774324       4.91932350       9.82344955      -1.61670136      -4.51341105      -2.67263865
Al       3.27932176       0.82365234      11.75699299      -3.32831955      -0.91060454       5.77509212
Hf       2.81279356       6.95923684       1.41793016       6.04416132       5.39526653      -4.97985983
Hf       4.85119278       9.06260417       3.12352075      -1.09914446       0.02874690       1.87740147
Al       3.19844275      10.30779585       1.30137378      -1.61669409      -4.51341057      -2.67264438
Al       4.89002127       6.21212469       3.23491722      -3.32831931      -0.91060185       5.77510548
Hf       2.81279356       6.95923684       5.67896804       6.04415894       5.39526558      -4.97986507
Hf       4.85119278       9.06260417       7.38455863      -1.09914231       0.02874683       1.87740338
Al       3.19844275      10.30779585       5.56241166      -1.61669469      -4.51340961      -2.67264819
Al       4.89002127       6.21212469       7.49595510      -3.32832074      -0.91059935       5.77511215
Hf       2.81279356       6.95923684       9.94000593       6.04416800       5.39526320      -4.97987223
Hf       4.85119278       9.06260417      11.64559652      -1.09914362       0.02875295       1.87740326
Al       3.19844275      10.30779585       9.82344955      -1.61669397      -4.51340866      -2.67263818
Al       4.89002127       6.21212469      11.75699299      -3.32832289      -0.91060638       5.77509308
Hf       4.42349306      12.34770919       1.41793016       6.04415703       5.39525080      -4.97986126
Hf       1.62979376      -1.71434053       3.12352075      -1.09913719       0.02875155       1.87740135
Al       4.80914225      15.69626820       1.30137378      -1.61669946      -4.51340866      -2.67264414
Al       1.66862225      -4.56482001       3.23491722      -3.32832718      -0.91059828       5.77511501
Hf       4.42349306      12.34770919       5.67896804       6.04415846       5.39524937      -4.97987270
Hf       1.62979376      -1.71434053       7.38455863      -1.09913719       0.02874970       1.87740278