9
Lattice="0.0 5.2041249688531 5.2041249688531 5.2041249688531 0.0 5.2041249688531 5.2041249688531 5.2041249688531 0.0" Properties=species:S:1:pos:R:3:forces:R:3 type=mat mad_index=35510 source=MAD energy=-31.763534545898438 stress="-0.003449417417868972 1.3145272077963455e-05 2.8100298550270963e-05 1.3145272077963455e-05 -0.0035336290020495653 3.8152365959831513e-05 2.8100298550270963e-05 3.8152365959831513e-05 -0.0034967425744980574" pbc="T T T"
Cs       2.60206248       2.60206248       7.80618745       0.00107121      -0.00643180       0.00119637
Cs       2.60206248       7.80618745       7.80618745      -0.00135285      -0.00787698       0.00656517
Pb       0.00000000       0.00000000       0.00000000      -0.01018126       0.00586941       0.00748217
Cl       7.86262757       0.00000000       0.00000000      -0.00989383       0.00545216      -0.00368919
Cl       5.20412497       2.65850260       0.00000000       0.00480070      -0.01980442      -0.00355491
Cl       0.00000000       0.00000000       7.86262757       0.00172648       0.00437186      -0.01404220
Cl       5.20412497       0.00000000       7.74974733       0.00126686       0.00534716       0.01489073
Cl       5.20412497       7.74974733       0.00000000       0.00120504       0.01130700      -0.00351837
Cl       2.54562237       0.00000000       0.00000000       0.01135772       0.00176560      -0.00533009
4
Lattice="1.8408994024075 -4.9720805213643 0.0 1.8408994024075 4.9720805213643 0.0 0.0 0.0 3.9815093622668" Properties=species:S:1:pos:R:3:forces:R:3 type=mat mad_index=45961 source=MAD energy=-19.086307525634766 stress="-0.058608878403902054 -0.0038179069524630904 -0.017198247835040092 -0.0038179069524630904 -0.11323141306638718 -0.002599896863102913 -0.017198247835040092 -0.002599896863102913 -0.08141601085662842" pbc="T T T"
Ni       1.49432416       8.63659958       2.98629649       0.90213847       3.49017620       0.35991156
Ni       0.27102197       5.60628035       1.18985670      -1.86371350      -1.19607234      -0.50887275
Bi       1.48441767       6.33193081       3.13188612       1.60351968      -2.83472300       0.45787966
Bi      -0.11098398       8.33052148       1.08696617      -0.64194453       0.54061937      -0.30891845
9
Lattice="3.8374403285268 2.7998855143619 -0.37673649695331 -3.8374403285268 2.7998855143619 0.37673649695331 -1.2892878410646 0.0 4.2916602019414" Properties=species:S:1:pos:R:3:forces:R:3 type=mat mad_index=37745 source=MAD energy=-56.49726867675781 stress="0.0037722184788435698 -6.404393047887424e-05 -0.001746403519064188 -6.404393047887424e-05 0.004489101469516754 4.067605459567858e-06 -0.001746403519064188 4.067605459567858e-06 0.002428738633170724" pbc="T T T"
Li       5.07077330       0.00000000       2.58747258       0.03335108       0.00189753       0.00896031
Li       4.61557817       4.16435426      -0.21806416       0.02439131      -0.00459564      -0.00881082
Li       4.61557817       1.43541677      -0.21806416       0.02732483       0.02595347      -0.00602682
Li       1.97934927       0.00000000       2.04746866       0.02116207       0.01005740      -0.04501743
C       -0.91847755       0.00000000       1.87971272       0.03612694      -0.00686694       0.00394087
O        2.74351336       3.94591501       2.31282453      -0.02008861      -0.11735827      -0.04535061
O        2.74351336       1.65385602       2.31282453      -0.02439735       0.11121714      -0.04140264
O        0.32193833       0.00000000       1.29304104      -0.11385560      -0.01246885       0.03694880
O        5.74781444       0.00000000       0.11184309       0.01598537      -0.00783682       0.09675795
12
Lattice="2.7245145790327 1.5729992255799 8.3941448179575 -2.7245145790327 1.5729992255799 8.3941448179575 7.4933082887965e-19 -3.1459984511598 8.3941448179575" Properties=species:S:1:pos:R:3:forces:R:3 type=mat mad_index=66070 source=MAD energy=-53.68650436401367 stress="-0.1031806468963623 0.012196122203022242 -0.011478376109153032 0.012196122203022242 -0.028889542445540428 0.00659359130077064 -0.011478376109153032 0.00659359130077064 -0.0696626752614975" pbc="T T T"
Y       -0.12569787      -0.00359074      21.05401023       0.04471441      -0.82752591       4.27129126
Y       -0.20879704       3.22478133      20.10616050       1.54626346      -1.10705519       1.15238976
Y       -0.00389472       0.25363596      -0.12612479       0.31827199      -0.88296086      -0.49320269
Al      -0.07428669       4.41351611      23.02755549      -0.57151937       1.51666987      -0.02136501
Al       1.55577642       2.55401400      23.02373845      -6.37539387      -0.66519481      -0.67495793
Al       1.19847425       0.91824960      18.91250383       1.06462193       0.02474180      -3.36754346
Al       4.20442831       0.70300618      18.59535295      -1.34905660       0.30067635      -0.39636832
Al       2.91870799       3.08805087      18.59439785      -1.37983453       0.83727682       0.59802181
Al      -1.86995589       2.40339852      23.36241170       8.29021835       0.54035747      -1.73527312
Al       2.68853207       1.26841961      20.76545291       0.48056120       1.89709449       1.63667464
Cu       2.84479900       1.51566487      25.14757889      -1.22015417      -0.83195949       0.54240614
Cu       2.91586540       1.70080174      16.84369705      -0.84869266      -0.80212057      -1.51207399
26
Lattice="7.5152892703511 2.9720674150093 -0.046316551497553 -7.5152892703511 2.9720674150093 0.046316551497553 -2.2529502374525 0.0 9.7836051155365" Properties=species:S:1:pos:R:3:forces:R:3 type=mat mad_index=59867 source=MAD energy=-116.55220031738281 stress="-0.08228178322315216 0.005832166410982609 -0.09958357736468315 0.005832166410982609 -0.11280831694602966 0.05933663621544838 -0.09958357736468315 0.05933663621544838 -0.46377596259117126" pbc="T T T"
Rb       1.07162236       1.60459668       6.10429763       0.56298828      -1.63296676       0.80124319
Rb       2.70460607       4.41847668       1.94721919       0.06138182       0.49738583      -1.33293664
Rb       2.57770767       4.60794542       8.31456126       0.03996928       0.06501843       0.47450027
Rb       4.81471706       1.88422195       3.58175667      -5.51852798       0.35951278      -2.06128430
Rb      -1.58080671       3.60100314       7.09630513       0.06034206       2.39053249       2.25908017
Rb      -0.57446409       2.27619069       2.77712290      -0.22428936      -2.52025723      -2.08932424
O        3.27758613       1.59966181       8.92375740     -32.47074890      -3.71383905     -95.56143951
O        4.44665976       4.28752896       3.80421373      -1.31288266       4.48467493      -0.30065513
O        0.80944075       4.09880678       5.73391357      -5.30517769     -14.20574188      91.00243378
O        2.00976441       1.56913495       1.29588062       1.02174544       0.76169145      -0.39388084
O        0.73840281       2.93245036       8.82424935      -4.05193520      -2.65801764       2.33333135
O        1.65357516       3.00438459       3.89988044      -1.87057400       4.52208519       2.85613585
O        3.61379657       5.60974185       5.86602515       1.73135352      -1.05432439      -0.59077966
O        4.86690568       0.24867543       0.74681467       0.61308491       1.53042591       0.18031895
O       -1.72096467       1.65400502       9.30642693     -10.81764603       3.47407293      -1.66945469
O       -0.92675149       4.09773713       4.22874794       8.46166134       0.39239135       2.99495745
O        6.05624023       4.97575587       5.33986948       1.59736931       2.61268687       0.02671708
O        7.02742683       1.00445155       0.57544665       4.75829268       0.77726710       0.70375228
O       -0.10074041       0.55842591       8.80779756       4.38512182      -4.00483513      -1.68345666
O        1.14209676       5.65122213       4.02580777       0.09098572      -3.44622254       2.31656837
O        4.70334071       3.50677233       5.67482584      -0.80157012     -35.39462280      17.04927063
O        5.15972198       2.79053785       1.13211249       3.74859095      -2.39392614      -4.05359077
S       -0.40792048       1.69208917       9.63539094       8.95147800       1.55596924       0.59093285
S        0.89374294       4.28972099       4.69667691       3.94809175      14.57763672     -96.06277466
S        4.60987197       4.63572068       5.29447660      -1.61562681      28.39503479     -16.16817856
S        5.89140180       1.67090887       0.11650190      23.95651436       4.62837124      98.37850952
3
Properties=species:S:1:pos:R:3:forces:R:3 type=mol mad_index=8373 source=MAD energy=-13.350343704223633 stress="-inf -inf -inf -inf inf inf -inf inf inf" pbc="F F F"
O       14.08751582      12.50000000      12.50000000      -0.41895843       2.03090239       1.55981946
P       12.50000000      12.69517179      12.54096238      -1.06279194      -1.23859918      -1.04964185
P       15.30093272      13.31187151      13.20212920       1.48175025      -0.79230320      -0.51017755
24
Properties=species:S:1:pos:R:3:forces:R:3 type=mol mad_index=15926 source=MAD energy=-147.2378692626953 stress="inf -inf -inf -inf inf inf -inf inf inf" pbc="F F F"
H       12.50000000      14.92058044      13.98063100       0.27079174      -0.04677903      -0.06602628
H       13.05586473      17.23399871      14.79962823       0.25251073      -0.03954224      -0.08502840
O       13.28277967      15.65263153      16.83936932       1.17364252      -0.73865342      -0.99626493
H       13.38005363      13.32239260      17.84722173       0.31390876       0.01245891      -0.04940949
C       13.55553298      14.73537682      13.73786240       0.07889616      -0.05471027      -0.04590434
H       13.74678484      15.03181410      12.69933535      -0.07716745      -0.07546180       0.24397182
H       13.77614678      13.66554432      13.83367627      -0.07711480       0.27085084      -0.02069108
C       14.10978737      15.12156253      16.10849706      -0.53771865       0.08225381       0.94061303
C       14.10483388      17.06910799      14.52558825      -0.03891590       0.01435786       0.04640196
H       14.26331813      17.37378555      13.48226510      -0.02197739      -0.06845266       0.25571826
C       14.45213135      15.57274115      14.67682082      -0.06317188       0.00179301       0.02391753
C       14.46589973      13.45660243      17.76277394       0.00048599       0.14720912      -0.18980172
H       14.72618713      17.69498224      15.17945903      -0.17559707      -0.14719059      -0.16293159
O       14.80263350      13.99349787      16.45213400      -0.57552093       0.52326626       0.21490657
H       14.80198201      14.14806982      18.54689400      -0.07167292      -0.17534181      -0.22825697
H       14.99378200      12.50000000      17.82985309      -0.15262456       0.28499955      -0.02854295
C       15.93943720      15.37729049      14.41082324       0.27057767      -0.39506710      -0.42281282
N       16.26679539      14.63234339      13.41066898       0.06059605       0.48388523       0.59360904
H       16.44927288      16.48142973      16.19563524       0.11475523      -0.10347277      -0.20365284
C       16.93072951      16.08553438      15.29353708       0.03335661      -0.06277385      -0.01852427
H       17.39507738      16.92326417      14.75160102      -0.09358633      -0.20180656       0.10791141
O       17.68268596      14.57777878      13.24648996      -0.35201856      -0.34545398      -0.36295313
H       17.76851638      13.95592562      12.50000000      -0.12765250       0.45662931       0.52295053
H       17.73845201      15.39959417      15.57955766      -0.20478256       0.17700250      -0.06919983
4
Lattice="4.5416959672911 0.0 0.0 2.7168070061372e-05 4.5794445999435 0.0 0.0 0.0 28.18586302" Properties=species:S:1:pos:R:3:forces:R:3 type=surf mad_index=1477 source=MAD energy=-15.950178146362305 stress="0.0006165364757180214 2.1538703549595084e-05 7.473590812878683e-07 2.1538703549595084e-05 0.00043426838237792253 3.4126492209907155e-06 7.473590812878683e-07 3.4126492209907155e-06 0.0013530899304896593" pbc="T T F"
Sn       1.13503435       1.98732140      12.76221469       0.00538302      -0.05337634       0.01824201
Sn       3.40633674       4.27687664      15.42366941       0.00599355      -0.05418058      -0.03390298
Te       1.13515884       2.11127669      15.68586302      -0.00715918       0.05527589      -0.21936689
Te       3.40622177       4.40072388      12.50000000      -0.00421739       0.05228104       0.23502785
13
Lattice="6.01893 0.0 0.0 -0.5814806530916079 6.837940736397191 0.0 5.366810228978595 -0.37802268696646374 3.6531009582503153" Properties=species:S:1:pos:R:3:forces:R:3 identifier=RSM0004 structure_type=COF energy=-96.6157455444336 stress="-0.0024620492476969957 0.001007305079838261 0.0017072385526262224 0.001007305079838261 0.02238052524626255 0.008807509206235409 0.0017072385526262224 0.008807509206235409 -0.017587358132004738" pbc="T T T"
Eu       7.35948138       4.19067991       1.86695378      -0.20569254       0.80388534      -0.01456954
H        4.76203548       2.34210299       1.98531425       0.25862983       0.02629541       1.88302827
H        7.65117879       1.28764563       3.52476752       0.41667327      -0.26340216      -2.07544851
H       10.10947450       5.13343487       3.29816567      -0.90652984      -0.03730193       1.70947504
C        4.91199264       2.49629685       3.12917322      -0.96916854      -0.28203747      -0.12084430
C        7.84454121       0.99555947       2.40045264      -0.19936112      -0.24811971       0.49699765
C        4.10887547       5.32729578       0.58950090       0.69301522       0.11803906       0.17808890
O        4.53832755       5.42906705       1.75889505       0.20850314      -0.17629556      -2.03724003
O        4.85400072       2.34350498       0.34686194       0.97502899       0.62042803      -1.76856732
O        5.85885976       3.37659943       3.41477265      -0.56541955      -0.62428403      -0.17165804
O        2.89992725       4.93792802       0.31343606       0.71695530      -0.17333995       0.20345613
O        1.96926890       1.84574911       1.45060986      -0.45203286       1.33193171       1.76578951
O        7.29937048       6.61048266       2.17958616       0.02939822      -1.09579849      -0.04850748
22
Lattice="4.41191 0.0 0.0 -3.0716766371595137 6.486855879879591 0.0 -3.4863789211865277 -1.4666419901124486 7.651746530116197" Properties=species:S:1:pos:R:3:forces:R:3 identifier=RSM0010 structure_type=MOF energy=-167.09486389160156 stress="0.0116867795586586 -0.006478208350017667 0.006329541094601154 -0.006478208350017667 0.02834460884332657 -0.007808988448232412 0.006329541094601154 -0.007808988448232412 0.005349897313863039" pbc="T T T"
Zn       0.36422172      -0.71047481       3.99773149      -0.00268380      -0.00352332       0.01582116
Zn      -3.37898561       2.53261296       4.00255209       0.00385918      -0.00070238       0.00062112
H        1.87596562       1.16322162       0.30561076      -0.30763552       0.27753210      -0.18260342
H       -0.73291834       5.37087216       0.04154898       0.30437493      -0.26858622       0.19206008
C        1.28585219       2.07545621       0.23460255       1.06182921       0.13056611      -0.66725546
C        0.17092703       2.22858788       1.01446855      -0.62860996       0.60703939       0.21374166
C       -0.58192980       3.42836149       0.97031798       1.44473994       0.32317489       0.48605961
C       -1.24738954       3.87186200       2.24555805       0.11837922       0.32409889       0.56860697
C       -0.19131465       1.09812229       1.91944062      -0.21385074      -0.72633243       0.29022869
C       -0.14257897       4.45881752       0.11263371      -1.03369486      -0.13530965       0.66515934
C       -2.51410757       2.83910872       6.98451423       0.65279955      -0.58165729      -0.23727316
C       -1.76098092       1.63924091       7.02881785      -1.49440897      -0.33414415      -0.43260768
C       -1.09546342       1.19607941       5.75350125      -0.13503356      -0.30883336      -0.58867711
C       -2.15166827       3.97001993       6.07992476       0.22860855       0.71576816      -0.29142851
O        3.25425993       0.36095183       1.77359833       1.02018797       0.58958638       0.27459317
O        0.71107089       0.91840364       2.90207791      -0.70382559       0.08264640      -0.15318987
O       -2.31436948       4.55935743       2.27287479       0.83638966      -0.36300600       0.21334852
O       -0.57285005       3.61524880       3.30616664      -0.64022183       0.08491851      -0.35131437
O       -5.59716706       4.70695178       6.22599660      -1.02357221      -0.59020638      -0.26894233
O       -3.05408430       4.15007759       5.09721095       0.69341928      -0.07897375       0.12954009
O       -0.02812312       0.50941713       5.72488372      -0.81595320       0.34422070      -0.22267841
O       -1.77021554       1.45334750       4.69319873       0.63490313      -0.08827657       0.34619021
50
Properties=species:S:1:pos:R:3:forces:R:3 type=mol mad_index=15116 source=MAD energy=-295.158935546875 stress="inf -inf -inf -inf inf -inf -inf -inf inf" pbc="F F F"
H       12.50000000      14.90518205      14.44372869       0.09620588       0.23180696       0.00809196
H       12.56403525      16.41152670      15.41527893       0.09475145      -0.12091477      -0.22404802
H       12.72290089      16.49004776      13.64444870       0.03895309      -0.15819025       0.25690356
C       12.97002326      15.89742038      14.53353479      -0.02281916       0.04625238      -0.00376388
H       14.21174205      14.03090670      15.92930924       0.13130811       0.22254001       0.00036856
C       14.49418203      15.74847873      14.63540918       0.02221745       0.01072270       0.03537676
H       14.49631994      15.57352682      16.77848609       0.07729097      -0.16073337      -0.20996366
O       14.73216654      17.93000864      16.14513877       0.37123960      -0.31654346      -0.84078431
H       14.63232520      14.08431251      13.25012614       0.08589026       0.24381019       0.00516762
H       14.81049316      15.69211603      12.50000000       0.06541570      -0.14612080       0.21557787
C       14.79397948      14.96390304      15.91672636      -0.06546348       0.08950166      -0.04285493
O       14.75776869      18.21228279      13.66053898       0.38803041      -0.58313847       0.97653222
C       15.06978797      15.08786430      13.37813691       0.00565295       0.05569266      -0.03882903
S       15.21756676      17.45436758      14.82092449       0.12738326       0.38244212      -0.06638742
H       15.91160135      12.50000000      16.45393172       0.20756431       0.15586403      -0.16349000
H       16.07762400      14.34549840      18.18628032       0.13221669       0.11791082      -0.17411277
H       15.98284164      16.86827560      17.50513355       0.23626867      -0.12118423       0.07338926
H       16.11149657      12.95984657      14.72518303       0.10960249       0.01697875       0.27174971
H       16.16541222      15.00964791      13.41331510      -0.24826969       0.04547289      -0.03779418
N       16.25087334      14.56280478      16.09332590       0.15134113       0.03174393      -0.00489554
C       16.47522605      13.11901536      15.74461143       0.03748533       0.10734153       0.01280414
O       16.69367462      17.19766404      14.84427528      -0.94089448       0.13626775       0.05292525
C       16.77480185      14.82547966      17.48631843       0.00753191      -0.10547750      -0.11041921
H       16.89504852      15.10413358      15.44892033      -0.21309763      -0.20589852       0.22509557
C       16.87497125      16.30624904      17.82774568       0.04509461       0.13305898      -0.03566936
H       16.95013040      18.77529576      16.88782047       0.22182064      -0.04617127       0.11331758
H       17.00305146      16.41457262      18.91338575      -0.00830983      -0.03869387      -0.24279086
H       17.55188040      12.92436931      15.81024918      -0.25259072       0.02000678      -0.01391915
H       17.75128660      14.31849418      17.53572517      -0.22856656       0.11911396      -0.03856963
C       17.90027110      18.48351074      17.34940756      -0.02794918      -0.11805820      -0.04175244
H       17.94056391      16.82132712      16.14090311       0.02169497       0.08058274       0.36192894
H       17.91185422      18.70965028      18.42310734      -0.08170596      -0.05265550      -0.29682487
N       18.05154756      16.99916384      17.17795566      -0.10660814      -0.00221351      -0.10621056
O       18.61498154      15.21781346      14.96626940       0.76332867      -0.32340696       0.45603639
H       18.74152422      18.96982569      16.84689182      -0.23594998      -0.11459661       0.13730806
H       19.23428166      15.57341651      18.24621381       0.02285326       0.22766843      -0.13479295
C       19.39718929      16.50147259      17.68554275       0.08688062      -0.05911195      -0.04493010
H       19.69671795      17.67545515      15.10029397       0.22944914      -0.07167622       0.09394485
H       19.77473385      17.26685680      18.37948389      -0.10085046      -0.17076997      -0.16742380
O       19.61780928      13.70481666      16.63872458       0.13322581       0.69382167      -0.65848058
S       19.88512656      14.74971343      15.61447359      -0.03497756      -0.26189983      -0.31972170
C       20.43435980      16.23557270      16.58908796      -0.03562495      -0.05048031       0.00105861
C       20.62049335      17.42424111      15.64005496       0.01309437      -0.05175200      -0.05024767
H       20.96541909      18.30325974      16.20833333      -0.05473771      -0.20795155      -0.14914036
O       20.96428514      14.46392948      14.67322266      -0.91875613       0.19132829       0.79976404
H       21.38250731      17.17375227      14.89176340      -0.18745485       0.06981930       0.17730439
H       21.62052770      14.99414396      17.93669617       0.05550561       0.21225491      -0.16773424
C       21.75279474      15.86479408      17.28028798       0.02690431      -0.01941796       0.01274106
H       22.12031655      16.71664309      17.87342789      -0.05815161      -0.19476613      -0.14112273
H       22.50044309      15.61152506      16.51864713      -0.18342385       0.05981880       0.23928720
108
Lattice="4.8320985243786 -16.1654170425267 0.0 4.8320985243786 16.1654170425267 0.0 0.0 0.0 12.7831136541012" Properties=species:S:1:pos:R:3:forces:R:3 type=mat base_atoms=4 mad_index=54478 supercell_factor=3 source=MAD energy=-621.0401000976562 stress="-0.07053419202566147 -0.08428278937935829 0.057377371937036514 -0.08428278937935829 -0.09734254330396652 0.02947303280234337 0.057377371937036514 0.02947303280234337 -0.11808718740940094" pbc="T T T"
Hf       4.42349306      -9.20618020       1.41793016       6.15559292       5.72427559      -4.91173124
Hf       6.46189228      -7.10281287       3.12352075      -1.31246555       0.09603419       2.14672565
Al       4.80914225      -5.85762119       1.30137378      -1.79924881      -4.83870697      -2.91028714
Al       6.50072077      -9.95329235       3.23491722      -3.04386997      -0.98159361       5.67529726
Hf       4.42349306      -9.20618020       5.67896804       6.15558815       5.72427416      -4.91173267
Hf       6.46189228      -7.10281287       7.38455863      -1.31246662       0.09603316       2.14672756
Al       4.80914225      -5.85762119       5.56241166      -1.79924774      -4.83870411      -2.91029167
Al       6.50072077      -9.95329235       7.49595510      -3.04386854      -0.98159027       5.67529821
Hf       4.42349306      -9.20618020       9.94000593       6.15559006       5.72427464      -4.91173553
Hf       6.46189228      -7.10281287      11.64559652      -1.31246567       0.09603377       2.14672542
Al       4.80914225      -5.85762119       9.82344955      -1.79924726      -4.83870268      -2.91028404
Al       6.50072077      -9.95329235      11.75699299      -3.04387140      -0.98159635       5.67528629
Hf       6.03419257      -3.81770786       1.41793016       6.15558529       5.72426891      -4.91172791
Hf       8.07259179      -1.71434053       3.12352075      -1.31246841       0.09603266       2.14672637
Al       6.41984176      -0.46914885       1.30137378      -1.79924870      -4.83870697      -2.91028976
Al       8.11142028      -4.56482001       3.23491722      -3.04386806      -0.98159236       5.67529678
Hf       6.03419257      -3.81770786       5.67896804       6.15558290       5.72426701      -4.91173172
Hf       8.07259179      -1.71434053       7.38455863      -1.31246889       0.09603233       2.14672709
Al       6.41984176      -0.46914885       5.56241166      -1.79924858      -4.83870602      -2.91029167
Al       8.11142028      -4.56482001       7.49595510      -3.04386783      -0.98159051       5.67529726
Hf       6.03419257      -3.81770786       9.94000593       6.15558386       5.72426605      -4.91173220
Hf       8.07259179      -1.71434053      11.64559652      -1.31246889       0.09603450       2.14672661
Al       6.41984176      -0.46914885       9.82344955      -1.79924822      -4.83870220      -2.91028309
Al       8.11142028      -4.56482001      11.75699299      -3.04386973      -0.98159677       5.67528534
Hf       7.64489208       1.57076449       1.41793016       6.15558243       5.72426653      -4.91172409
Hf       4.85119278     -12.49128522       3.12352075      -1.31246841       0.09603545       2.14672661
Al       8.03054127       4.91932350       1.30137378      -1.79925156      -4.83871460      -2.91028929
Al       4.89002127     -15.34176470       3.23491722      -3.04386806      -0.98159075       5.67529392
Hf       7.64489208       1.57076449       5.67896804       6.15557957       5.72426605      -4.91172743
Hf       4.85119278     -12.49128522       7.38455863      -1.31246924       0.09603519       2.14672828
Al       8.03054127       4.91932350       5.56241166      -1.79925251      -4.83871555      -2.91029334
Al       4.89002127     -15.34176470       7.49595510      -3.04386568      -0.98158801       5.67529583
Hf       7.64489208       1.57076449       9.94000593       6.15558100       5.72426701      -4.91172743
Hf       4.85119278     -12.49128522      11.64559652      -1.31246936       0.09603681       2.14672709
Al       8.03054127       4.91932350       9.82344955      -1.79925060      -4.83871174      -2.91028476
Al       4.89002127     -15.34176470      11.75699299      -3.04386806      -0.98159277       5.67528152
Hf       1.20209405       1.57076449       1.41793016       6.15558624       5.72426796      -4.91172600
Hf       3.24049327       3.67413182       3.12352075      -1.31246626       0.09603102       2.14672565
Al       1.58774324       4.91932350       1.30137378      -1.79924965      -4.83871078      -2.91028953
Al       3.27932176       0.82365234       3.23491722      -3.04386592      -0.98158979       5.67529297
Hf       1.20209405       1.57076449       5.67896804       6.15558338       5.72426701      -4.91172886
Hf       3.24049327       3.67413182       7.38455863      -1.31246626       0.09602932       2.14672637
Al       1.58774324       4.91932350       5.56241166      -1.79924893      -4.83871078      -2.91029501
Al       3.27932176       0.82365234       7.49595510      -3.04386544      -0.98158967       5.67529297
Hf       1.20209405       1.57076449       9.94000593       6.15558290       5.72426605      -4.91172886
Hf       3.24049327       3.67413182      11.64559652      -1.31246674       0.09603111       2.14672542
Al       1.58774324       4.91932350       9.82344955      -1.79924870      -4.83870649      -2.91028595
Al       3.27932176       0.82365234      11.75699299      -3.04386783      -0.98159277       5.67528248
Hf       2.81279356       6.95923684       1.41793016       6.15558720       5.72426987      -4.91172934
Hf       4.85119278       9.06260417       3.12352075      -1.31246769       0.09603107       2.14672518
Al       3.19844275      10.30779585       1.30137378      -1.79924512      -4.83870411      -2.91028786
Al       4.89002127       6.21212469       3.23491722      -3.04386902      -0.98159254       5.67529488
Hf       2.81279356       6.95923684       5.67896804       6.15558529       5.72426891      -4.91173077
Hf       4.85119278       9.06260417       7.38455863      -1.31246853       0.09603124       2.14672565
Al       3.19844275      10.30779585       5.56241166      -1.79924488      -4.83870268      -2.91029263
Al       4.89002127       6.21212469       7.49595510      -3.04386878      -0.98159343       5.67529583
Hf       2.81279356       6.95923684       9.94000593       6.15558386       5.72426939      -4.91173077
Hf       4.85119278       9.06260417      11.64559652      -1.31246877       0.09603301       2.14672518
Al       3.19844275      10.30779585       9.82344955      -1.79924273      -4.83870029      -2.91028428
Al       4.89002127       6.21212469      11.75699299      -3.04387093      -0.98159659       5.67528439
Hf       4.42349306      12.34770919       1.41793016       6.15558338       5.72425890      -4.91172838
Hf       1.62979376      -1.71434053       3.12352075      -1.31246507       0.09603337       2.14672446
Al       4.80914225      15.69626820       1.30137378      -1.79924893      -4.83871078      -2.91028929
Al       1.66862225      -4.56482001       3.23491722      -3.04386926      -0.98159170       5.67529678
Hf       4.42349306      12.34770919       5.67896804       6.15558195       5.72425938      -4.91173077
Hf       1.62979376      -1.71434053       7.38455863      -1.31246519       0.09603176       2.14672613